#(C) 2022 by FIZ Karlsruhe - Leibniz Institute for Information Infrastructure.  All rights reserved.
data_18-ICSD
_database_code_ICSD 18
_audit_creation_date 1986-08-12
_audit_update_record 2004-10-01
_chemical_name_common 'Tricalcium bis(hydrogensilicate) dihydrate'
_chemical_formula_structural 'Ca3 (H Si O4)2 (H2 O)2'
_chemical_formula_sum 'H6 Ca3 O10 Si2'
_chemical_name_mineral Afwillite
_exptl_crystal_density_diffrn 2.65
_citation_title 'A re-investigation of the structure of afwillite'
loop_
_citation_id
_citation_journal_full
_citation_year
_citation_journal_volume
_citation_page_first
_citation_page_last
_citation_journal_id_ASTM
primary

;
Acta Crystallographica, Section B: Structural Crystallography and Crystal
Chemistry
; 1976 32 475 480 ACBCAR
loop_
_citation_author_citation_id
_citation_author_name
primary 'Malik, K.M.A.'
primary 'Jeffery, J.W.'
_cell_length_a 16.278(1)
_cell_length_b 5.6321(4)
_cell_length_c 13.236(1)
_cell_angle_alpha 90.
_cell_angle_beta 134.898(3)
_cell_angle_gamma 90.
_cell_volume 859.58
_cell_formula_units_Z 4
_space_group_name_H-M_alt 'C 1 c 1'
_space_group_IT_number 9
loop_
_space_group_symop_id
_space_group_symop_operation_xyz
1 'x, -y, z+1/2'
2 'x, y, z'
3 'x+1/2, -y+1/2, z+1/2'
4 'x+1/2, y+1/2, z'
loop_
_atom_type_symbol
_atom_type_oxidation_number
Ca2+ 2
Si4+ 4
O2- -2
H1+ 1
loop_
_atom_site_label
_atom_site_type_symbol
_atom_site_symmetry_multiplicity
_atom_site_Wyckoff_symbol
_atom_site_fract_x
_atom_site_fract_y
_atom_site_fract_z
_atom_site_U_iso_or_equiv
_atom_site_occupancy
Ca1 Ca2+ 4 a 0.19680(5) 0.03703(6) 0.29200(5) . 1.
Ca2 Ca2+ 4 a 0.80171(4) 0.04990(7) 0.21213(5) . 1.
Ca3 Ca2+ 4 a 0.50392(4) 0.02829(7) 0.03131(6) . 1.
Si1 Si4+ 4 a 0.11768(6) 0.05129(10) 0.00184(7) . 1.
Si2 Si4+ 4 a 0.86923(6) 0.98073(10) 0.00188(7) . 1.
O1 O2- 4 a 0.99020(15) 0.90943(34) 0.34297(18) . 1.
O2 O2- 4 a 0.00197(15) 0.90887(33) 0.15827(18) . 1.
O3 O2- 4 a 0.78272(14) 0.97821(29) 0.02343(18) . 1.
O4 O2- 4 a 0.21228(15) 0.05467(27) 0.98665(19) . 1.
O5 O2- 4 a 0.33680(15) 0.73414(27) 0.39691(17) . 1.
O6 O2- 4 a 0.36651(16) 0.26997(30) 0.44054(21) . 1.
O7 O2- 4 a 0.15230(15) 0.27093(26) 0.10640(18) . 1.
O8 O2- 4 a 0.13667(15) 0.80824(26) 0.08125(19) . 1.
O9 O2- 4 a 0.59284(16) 0.89321(35) 0.26963(20) . 1.
O10 O2- 4 a 0.41837(20) 0.96957(40) 0.26654(26) . 1.
H1 H1+ 4 a 0.496 0.415 0.243 0.0102 1.
H2 H1+ 4 a 0.228 0.24 0 0.0101 1.
H3 H1+ 4 a 0.15 0.45 0.375 0.014 1.
H4 H1+ 4 a 0.03 0.36 0.27 0.014 1.
H5 H1+ 4 a 0.43 0.105 0.312 0.0197 1.
H6 H1+ 4 a 0.346 0.975 0.164 0.0197 1.
loop_
_atom_site_aniso_label
_atom_site_aniso_type_symbol
_atom_site_aniso_U_11
_atom_site_aniso_U_22
_atom_site_aniso_U_33
_atom_site_aniso_U_12
_atom_site_aniso_U_13
_atom_site_aniso_U_23
Ca1 Ca2+ 0.0061 0.0066 0.0063 0.00065 0.0042 0.0004
Ca2 Ca2+ 0.0067 0.11 0.0078 -.00255 0.00515 0.0001
Ca3 Ca2+ 0.006 0.0071 0.128 0.0017 0.0057 0.0006
Si1 Si4+ 0.0063 0.0063 0.0057 -.0015 0.0042 -.0006
Si2 Si4+ 0.006 0.0054 0.006 0.0001 0.00435 -.0001
O1 O2- 0.0072 0.018 0.0073 -.00085 0.0039 0.001
O2 O2- 0.0067 0.0171 0.0069 0.0019 0.00415 0.0014
O3 O2- 0.0089 0.0123 0.01 -.00025 0.00775 -.0006
O4 O2- 0.0113 0.0095 0.0135 -.00175 0.0103 -.0021
O5 O2- 0.0093 0.0072 0.0075 0.00365 0.00585 0.001
O6 O2- 0.01 0.0091 0.0139 -.003 0.00795 -.00085
O7 O2- 0.0102 0.0073 0.0099 -.00165 0.00775 -.00015
O8 O2- 0.0108 0.0076 0.011 0.0017 0.00825 -.0002
O9 O2- 0.0124 0.0159 0.0128 -.00215 0.00825 0.00055
O10 O2- 0.0194 0.0186 0.0226 0.00735 0.01395 0.0032
#End of TTdata_18-ICSD
