#(C) 2022 by FIZ Karlsruhe - Leibniz Institute for Information Infrastructure.  All rights reserved.
data_16-ICSD
_database_code_ICSD 16
_audit_creation_date 1980-01-01
_audit_update_record 2006-04-01
_chemical_name_common 'Dithallium lead hexanitrocuprate'
_chemical_formula_structural 'Tl2 Pb (Cu (N O2)6)'
_chemical_formula_sum 'Cu1 N6 O12 Pb1 Tl2'
_chemical_name_structure_type K2Pb(Cu(NO2)6)
_exptl_crystal_density_diffrn 5.13
_diffrn_ambient_temperature 295.
_citation_title 'Thallium lead hexanitrocuprate(II) at 295 K'
loop_
_citation_id
_citation_journal_full
_citation_year
_citation_journal_volume
_citation_page_first
_citation_page_last
_citation_journal_id_ASTM
primary

;
Acta Crystallographica, Section B: Structural Crystallography and Crystal
Chemistry
; 1976 32 326 328 ACBCAR
loop_
_citation_author_citation_id
_citation_author_name
primary 'Takagi, S.'
primary 'Joesten, M.D.'
primary 'Lenhert, P.G.'
_cell_length_a 10.7344(5)
_cell_length_b 10.7344(5)
_cell_length_c 10.7344(5)
_cell_angle_alpha 90.
_cell_angle_beta 90.
_cell_angle_gamma 90.
_cell_volume 1236.9
_cell_formula_units_Z 4
_space_group_name_H-M_alt 'F m -3'
_space_group_IT_number 202
loop_
_space_group_symop_id
_space_group_symop_operation_xyz
1 'z, x, -y'
2 'y, z, -x'
3 'x, y, -z'
4 '-z, -x, y'
5 '-y, -z, x'
6 '-x, -y, z'
7 'z, -x, y'
8 'y, -z, x'
9 'x, -y, z'
10 '-z, x, -y'
11 '-y, z, -x'
12 '-x, y, -z'
13 '-z, x, y'
14 '-y, z, x'
15 '-x, y, z'
16 'z, -x, -y'
17 'y, -z, -x'
18 'x, -y, -z'
19 '-z, -x, -y'
20 '-y, -z, -x'
21 '-x, -y, -z'
22 'z, x, y'
23 'y, z, x'
24 'x, y, z'
25 'z, x+1/2, -y+1/2'
26 'y, z+1/2, -x+1/2'
27 'x, y+1/2, -z+1/2'
28 '-z, -x+1/2, y+1/2'
29 '-y, -z+1/2, x+1/2'
30 '-x, -y+1/2, z+1/2'
31 'z, -x+1/2, y+1/2'
32 'y, -z+1/2, x+1/2'
33 'x, -y+1/2, z+1/2'
34 '-z, x+1/2, -y+1/2'
35 '-y, z+1/2, -x+1/2'
36 '-x, y+1/2, -z+1/2'
37 '-z, x+1/2, y+1/2'
38 '-y, z+1/2, x+1/2'
39 '-x, y+1/2, z+1/2'
40 'z, -x+1/2, -y+1/2'
41 'y, -z+1/2, -x+1/2'
42 'x, -y+1/2, -z+1/2'
43 '-z, -x+1/2, -y+1/2'
44 '-y, -z+1/2, -x+1/2'
45 '-x, -y+1/2, -z+1/2'
46 'z, x+1/2, y+1/2'
47 'y, z+1/2, x+1/2'
48 'x, y+1/2, z+1/2'
49 'z+1/2, x, -y+1/2'
50 'y+1/2, z, -x+1/2'
51 'x+1/2, y, -z+1/2'
52 '-z+1/2, -x, y+1/2'
53 '-y+1/2, -z, x+1/2'
54 '-x+1/2, -y, z+1/2'
55 'z+1/2, -x, y+1/2'
56 'y+1/2, -z, x+1/2'
57 'x+1/2, -y, z+1/2'
58 '-z+1/2, x, -y+1/2'
59 '-y+1/2, z, -x+1/2'
60 '-x+1/2, y, -z+1/2'
61 '-z+1/2, x, y+1/2'
62 '-y+1/2, z, x+1/2'
63 '-x+1/2, y, z+1/2'
64 'z+1/2, -x, -y+1/2'
65 'y+1/2, -z, -x+1/2'
66 'x+1/2, -y, -z+1/2'
67 '-z+1/2, -x, -y+1/2'
68 '-y+1/2, -z, -x+1/2'
69 '-x+1/2, -y, -z+1/2'
70 'z+1/2, x, y+1/2'
71 'y+1/2, z, x+1/2'
72 'x+1/2, y, z+1/2'
73 'z+1/2, x+1/2, -y'
74 'y+1/2, z+1/2, -x'
75 'x+1/2, y+1/2, -z'
76 '-z+1/2, -x+1/2, y'
77 '-y+1/2, -z+1/2, x'
78 '-x+1/2, -y+1/2, z'
79 'z+1/2, -x+1/2, y'
80 'y+1/2, -z+1/2, x'
81 'x+1/2, -y+1/2, z'
82 '-z+1/2, x+1/2, -y'
83 '-y+1/2, z+1/2, -x'
84 '-x+1/2, y+1/2, -z'
85 '-z+1/2, x+1/2, y'
86 '-y+1/2, z+1/2, x'
87 '-x+1/2, y+1/2, z'
88 'z+1/2, -x+1/2, -y'
89 'y+1/2, -z+1/2, -x'
90 'x+1/2, -y+1/2, -z'
91 '-z+1/2, -x+1/2, -y'
92 '-y+1/2, -z+1/2, -x'
93 '-x+1/2, -y+1/2, -z'
94 'z+1/2, x+1/2, y'
95 'y+1/2, z+1/2, x'
96 'x+1/2, y+1/2, z'
loop_
_atom_type_symbol
_atom_type_oxidation_number
Cu2+ 2
Pb2+ 2
Tl1+ 1
O2- -2
N3+ 3
loop_
_atom_site_label
_atom_site_type_symbol
_atom_site_symmetry_multiplicity
_atom_site_Wyckoff_symbol
_atom_site_fract_x
_atom_site_fract_y
_atom_site_fract_z
_atom_site_B_iso_or_equiv
_atom_site_occupancy
Cu1 Cu2+ 4 a 0 0 0 1.35 1.
Pb1 Pb2+ 4 b 0 0 0.5 1.47 1.
Tl1 Tl1+ 8 c 0.25 0.25 0.25 2.95 1.
O1 O2- 48 h 0.09922(31) 0 0.25861(31) . 1.
N1 N3+ 24 e 0 0 0.19727(53) . 1.
loop_
_atom_site_aniso_label
_atom_site_aniso_type_symbol
_atom_site_aniso_B_11
_atom_site_aniso_B_22
_atom_site_aniso_B_33
_atom_site_aniso_B_12
_atom_site_aniso_B_13
_atom_site_aniso_B_23
O1 O2- 2.01 3.21 3.38 0 -.38 0
N1 N3+ 2.26 1.75 2.61 0 0 0
#End of TTdata_16-ICSD
