#(C) 2022 by FIZ Karlsruhe - Leibniz Institute for Information Infrastructure.  All rights reserved.
data_4-ICSD
_database_code_ICSD 4
_audit_creation_date 1980-01-01
_audit_update_record 2015-02-01
_chemical_name_common 'Cerium fluoride'
_chemical_formula_structural 'Ce F3'
_chemical_formula_sum 'Ce1 F3'
_chemical_name_structure_type Fluocerite#LaF3(P3-c1)
_chemical_name_mineral Fluocerite-(Ce)
_exptl_crystal_density_diffrn 6.12
_citation_title
'A powder neutron diffraction of lanthanum and cerium trifluorides'
loop_
_citation_id
_citation_journal_full
_citation_year
_citation_journal_volume
_citation_page_first
_citation_page_last
_citation_journal_id_ASTM
primary

;
Acta Crystallographica, Section B: Structural Crystallography and Crystal
Chemistry
; 1976 32 94 97 ACBCAR
loop_
_citation_author_citation_id
_citation_author_name
primary 'Cheetham, A.K.'
primary 'Fender, B.E.F.'
primary 'Fuess, H.'
primary 'Wright, A.F.'
_cell_length_a 7.131(1)
_cell_length_b 7.131(1)
_cell_length_c 7.286(1)
_cell_angle_alpha 90.
_cell_angle_beta 90.
_cell_angle_gamma 120.
_cell_volume 320.86
_cell_formula_units_Z 6
_space_group_name_H-M_alt 'P -3 c 1'
_space_group_IT_number 165
loop_
_space_group_symop_id
_space_group_symop_operation_xyz
1 'x-y, -y, -z+1/2'
2 '-x, -x+y, -z+1/2'
3 'y, x, -z+1/2'
4 'x-y, x, -z'
5 'y, -x+y, -z'
6 '-x, -y, -z'
7 '-x+y, y, z+1/2'
8 'x, x-y, z+1/2'
9 '-y, -x, z+1/2'
10 '-x+y, -x, z'
11 '-y, x-y, z'
12 'x, y, z'
loop_
_atom_type_symbol
_atom_type_oxidation_number
Ce3+ 3
F1- -1
loop_
_atom_site_label
_atom_site_type_symbol
_atom_site_symmetry_multiplicity
_atom_site_Wyckoff_symbol
_atom_site_fract_x
_atom_site_fract_y
_atom_site_fract_z
_atom_site_B_iso_or_equiv
_atom_site_occupancy
Ce1 Ce3+ 6 f 0.6607(7) 0 0.25 0.29(5) 1.
F1 F1- 12 g 0.3659(3) 0.0540(2) 0.0824(4) 1.17(3) 1.
F2 F1- 4 d 0.3333 0.6666 0.1871(5) 1.01(6) 1.
F3 F1- 2 a 0 0 0.25 1.60(15) 1.
#End of TTdata_4-ICSD
